
                                 *****************
                                 * O   R   C   A *
                                 *****************

                                            #,                                       
                                            ###                                      
                                            ####                                     
                                            #####                                    
                                            ######                                   
                                           ########,                                 
                                     ,,################,,,,,                         
                               ,,#################################,,                 
                          ,,##########################################,,             
                       ,#########################################, ''#####,          
                    ,#############################################,,   '####,        
                  ,##################################################,,,,####,       
                ,###########''''           ''''###############################       
              ,#####''   ,,,,##########,,,,          '''####'''          '####       
            ,##' ,,,,###########################,,,                        '##       
           ' ,,###''''                  '''############,,,                           
         ,,##''                                '''############,,,,        ,,,,,,###''
      ,#''                                            '''#######################'''  
     '                                                          ''''####''''         
             ,#######,   #######,   ,#######,      ##                                
            ,#'     '#,  ##    ##  ,#'     '#,    #''#        ,####,   ,####,        
            ##       ##  ##   ,#'  ##            #'  '#       #'       #'  '#        
            ##       ##  #######   ##           ,######,      #####,   #    #        
            '#,     ,#'  ##    ##  '#,     ,#' ,#      #,     #,   #   #,  ,#        
             '#######'   ##     ##  '#######'  #'      '#     '####' # '####'        



                #########################################################
                #                        -***-                          #
                #          Department of theory and spectroscopy        #
                #                                                       #
                #                      Frank Neese                      #
                #                                                       #
                #     Directorship, Architecture, Infrastructure        #
                #                    SHARK, DRIVERS                     #
                #        Core code/Algorithms in most modules           #
                #                                                       #
                #        Max Planck Institute fuer Kohlenforschung      #
                #                Kaiser Wilhelm Platz 1                 #
                #                 D-45470 Muelheim/Ruhr                 #
                #                      Germany                          #
                #                                                       #
                #                  All rights reserved                  #
                #                        -***-                          #
                #########################################################


                         Program Version 6.0.0  -   RELEASE  -


 With contributions from (in alphabetic order):
   Daniel Aravena         : Magnetic Suceptibility
   Michael Atanasov       : Ab Initio Ligand Field Theory (pilot matlab implementation)
   Alexander A. Auer      : GIAO ZORA, VPT2 properties, NMR spectrum
   Ute Becker             : All parallelization in ORCA, NUMFREQ, NUMCALC
   Giovanni Bistoni       : ED, misc. LED, open-shell LED, HFLD
   Martin Brehm           : Molecular dynamics
   Dmytro Bykov           : pre 5.0 version of the SCF Hessian
   Marcos Casanova-Páez   : Triplet and SCS-CIS(D). UHF-(DLPNO)-IP/EA/STEOM-CCSD. UHF-CVS-IP/STEOM-CCSD
   Vijay G. Chilkuri      : MRCI spin determinant printing, contributions to CSF-ICE
   Pauline Colinet        : FMM embedding
   Dipayan Datta          : RHF DLPNO-CCSD density
   Achintya Kumar Dutta   : EOM-CC, STEOM-CC
   Nicolas Foglia         : Exact transition moments, OPA infrastructure, MCD improvements
   Dmitry Ganyushin       : Spin-Orbit,Spin-Spin,Magnetic field MRCI
   Miquel Garcia          : C-PCM and meta-GGA Hessian, CCSD/C-PCM, Gaussian charge scheme
   Tiago L. C. Gouveia    : GS-ROHF, GS-ROCIS
   Yang Guo               : DLPNO-NEVPT2, F12-NEVPT2, CIM, IAO-localization
   Andreas Hansen         : Spin unrestricted coupled pair/coupled cluster methods
   Ingolf Harden          : AUTO-CI MPn and infrastructure 
   Benjamin Helmich-Paris : MC-RPA, TRAH-(SCF,CASSCF), AVAS, COSX integrals, SCF dyn. polar.
   Lee Huntington         : MR-EOM, pCC
   Robert Izsak           : Overlap fitted RIJCOSX, COSX-SCS-MP3, EOM
   Riya Kayal             : Wick's Theorem for AUTO-CI, AUTO-CI UHF-CCSDT
   Emily Kempfer          : AUTO-CI, RHF CISDT and CCSDT
   Christian Kollmar      : KDIIS, OOCD, Brueckner-CCSD(T), CCSD density, CASPT2, CASPT2-K, improved NEVPT2
   Axel Koslowski         : Symmetry handling
   Simone Kossmann        : Meta GGA functionals, TD-DFT gradient, OOMP2, (MP2 Hessian; deprecated post 5.0)
   Lucas Lang             : DCDCAS
   Marvin Lechner         : AUTO-CI (C++ implementation), FIC-MRCC
   Spencer Leger          : CASSCF response
   Dagmar Lenk            : GEPOL surface, SMD, ORCA-2-JSON
   Dimitrios Liakos       : Extrapolation schemes; Compound Job, initial MDCI parallelization
   Dimitrios Manganas     : Further ROCIS development; embedding schemes. LFT, Crystal Embedding
   Dimitrios Pantazis     : SARC Basis sets
   Anastasios Papadopoulos: AUTO-CI, single reference methods and gradients
   Taras Petrenko         : pre 6.0 DFT Hessian and TD-DFT gradient, (ASA, deprecated), ECA, 1-Electron XAS/XES, NRVS
   Peter Pinski           : DLPNO-MP2, DLPNO-MP2 Gradient
   Christoph Reimann      : Effective Core Potentials
   Marius Retegan         : Local ZFS, SOC
   Christoph Riplinger    : Optimizer, TS searches, QM/MM, DLPNO-CCSD(T), (RO)-DLPNO pert. Triples
   Michael Roemelt        : Original ROCIS implementation
   Masaaki Saitow         : Open-shell DLPNO-CCSD energy and density
   Barbara Sandhoefer     : DKH picture change effects
   Kantharuban Sivalingam : CASSCF convergence/infrastructure, NEVPT2 and variants, FIC-MRCI
   Bernardo de Souza      : ESD, SOC TD-DFT
   Georgi Stoychev        : AutoAux, RI-MP2 NMR, DLPNO-MP2 response, X2C
   Van Anh Tran           : RI-MP2 g-tensors
   Willem Van den Heuvel  : Paramagnetic NMR
   Zikuan Wang            : NOTCH, Electric field optimization 
   Frank Wennmohs         : Technical directorship and infrastructure
   Hang Xu                : AUTO-CI-Response properties 


 We gratefully acknowledge several colleagues who have allowed us to
 interface, adapt or use parts of their codes:
   Stefan Grimme, W. Hujo, H. Kruse, P. Pracht,  : VdW corrections, initial TS optimization,
                  C. Bannwarth, S. Ehlert,         DFT functionals, gCP, sTDA/sTD-DF
                  L. Wittmann, M. Mueller
   Ed Valeev, F. Pavosevic, A. Kumar             : LibInt (2-el integral package), F12 methods
   Garnet Chan, S. Sharma, J. Yang, R. Olivares  : DMRG
   Ulf Ekstrom                                   : XCFun DFT Library
   Mihaly Kallay                                 : mrcc  (arbitrary order and MRCC methods)
   Frank Weinhold                                : gennbo (NPA and NBO analysis)
   Simon Mueller                                 : openCOSMO-RS
   Christopher J. Cramer and Donald G. Truhlar   : smd solvation model
   Lars Goerigk                                  : TD-DFT with DH, B97 family of functionals
   V. Asgeirsson, H. Jonsson                     : NEB implementation
   FAccTs GmbH                                   : IRC, NEB, NEB-TS, DLPNO-Multilevel, CI-OPT
                                                   MM, QMMM, 2- and 3-layer-ONIOM, Crystal-QMMM,
                                                   LR-CPCM, SF, NACMEs, symmetry and pop. for TD-DFT,
                                                   nearIR, NL-DFT gradient (VV10), updates on ESD,
                                                   ML-optimized integration grids, MBIS, APM,
                                                   GOAT, DOCKER, SOLVATOR, interface openCOSMO-RS
   S Lehtola, MJT Oliveira, MAL Marques          : LibXC Library
   Liviu Ungur et al                             : ANISO software


 Your calculation uses the libint2 library for the computation of 2-el integrals
 For citations please refer to: http://libint.valeyev.net

 Your ORCA version has been built with support for libXC version: 6.2.2
 For citations please refer to: https://libxc.gitlab.io

 This ORCA versions uses:
   CBLAS   interface :  Fast vector & matrix operations
   LAPACKE interface :  Fast linear algebra routines
   SCALAPACK package :  Parallel linear algebra routines
   Shared memory     :  Shared parallel matrices
   BLAS/LAPACK       :  OpenBLAS 0.3.27  USE64BITINT DYNAMIC_ARCH NO_AFFINITY Zen SINGLE_THREADED
        Core in use  :  Zen
   Copyright (c) 2011-2014, The OpenBLAS Project


NOTE: MaxCore=10000 MB was set to SCF,MP2,MDCI,CIPSI,MRCI and CIS
      => If you want to overwrite this, your respective input block should be placed after the MaxCore statement
Your calculation utilizes the semiempirical GFN2-xTB method
Please cite in your paper:
C. Bannwarth, Ehlert S., S. Grimme,  J. Chem. Theory Comput., 15, (2019), 1652.
   

================================================================================

================================================================================
                                        WARNINGS
                       Please study these warnings very carefully!
================================================================================


WARNING: Geometry Optimization
  ===> : Switching off AutoStart
         For restart on a previous wavefunction, please use MOREAD

WARNING: Found dipole moment calculation with XTB calculation
  ===> : Switching off dipole moment calculation


WARNING: otool_xtb not available.
         Trying xtb instead   ... done.
  ===> : Now using xtb as program name.


================================================================================
                                       INPUT FILE
================================================================================
NAME = Bod_xtb_opt.inp
|  1> ! xtb2 Opt
|  2> 
|  3> %maxcore 10000          # Alloue 10000 Mo de RAM pour le calcul
|  4> %pal nprocs 5 end       # Utilise 5 cœurs pour le calcul parallèle
|  5> 
|  6> * xyz 0 1               # Début des coordonnées : charge 0, multiplicité 1 (singulet)
|  7> B      0.066097   -1.312457    0.724497
|  8> N      1.253131   -0.520662    0.175009
|  9> C      2.560398   -0.884831    0.262699
| 10> C      3.359893    0.073920   -0.345879
| 11> C      2.490420    1.050289   -0.815696
| 12> C      1.211466    0.654542   -0.479980
| 13> C     -0.108715    1.239845   -0.690487
| 14> C     -1.262613    0.723958   -0.298585
| 15> N     -1.195221   -0.517706    0.391355
| 16> C     -2.416206   -0.852243    0.687573
| 17> C     -3.318658    0.185171    0.186474
| 18> C     -2.650287    1.155536   -0.416918
| 19> F      0.171663   -1.361571    2.179069
| 20> F     -0.019245   -2.634192    0.146780
| 21> H      3.032868   -1.766676    0.714885
| 22> H      4.432390    0.111258   -0.462333
| 23> H      2.680334    1.977728   -1.352437
| 24> H     -0.164406    2.184450   -1.214992
| 25> H     -2.760112   -1.752033    1.222510
| 26> H     -4.409788    0.184220    0.284158
| 27> H     -2.953410    2.061455   -0.897702
| 28> *
| 29> 
| 30>                          ****END OF INPUT****
================================================================================

                       *****************************
                       * Geometry Optimization Run *
                       *****************************

Geometry optimization settings:
Update method            Update   .... BFGS
Choice of coordinates    CoordSys .... (2022) Redundant Internals
Initial Hessian          InHess   .... Almloef's Model
Max. no of cycles        MaxIter  .... 63

Convergence Tolerances:
Energy Change            TolE     ....  5.0000e-06 Eh
Max. Gradient            TolMAXG  ....  3.0000e-04 Eh/bohr
RMS Gradient             TolRMSG  ....  1.0000e-04 Eh/bohr
Max. Displacement        TolMAXD  ....  4.0000e-03 bohr
RMS Displacement         TolRMSD  ....  2.0000e-03 bohr
Strict Convergence                .... False

------------------------------------------------------------------------------
                        ORCA OPTIMIZATION COORDINATE SETUP
------------------------------------------------------------------------------

The optimization will be done in redundant internal coordinates (2022)
Making redundant internal coordinates   ...  (2022 redundants) done
Evaluating the initial hessian          ...  (Almloef) done
Evaluating the coordinates              ...  done
Calculating the B-matrix                .... done
Calculating the G-matrix                .... done
Diagonalizing the G-matrix              .... done
The first mode is                       ....   63
The number of degrees of freedom        ....   57

    -----------------------------------------------------------------
                    Redundant Internal Coordinates


    -----------------------------------------------------------------
         Definition                    Initial Value    Approx d2E/dq
    -----------------------------------------------------------------
      1. B(N   1,B   0)                  1.5290         0.388940   
      2. B(C   2,N   1)                  1.3599         0.625087   
      3. B(C   3,C   2)                  1.3888         0.627559   
      4. B(C   4,C   3)                  1.3892         0.626527   
      5. B(C   5,C   4)                  1.3802         0.647620   
      6. B(C   5,N   1)                  1.3461         0.657650   
      7. B(C   6,C   5)                  1.4594         0.484237   
      8. B(C   7,C   6)                  1.3233         0.798185   
      9. B(N   8,C   7)                  1.4221         0.497401   
     10. B(N   8,B   0)                  1.5276         0.390998   
     11. B(C   9,N   8)                  1.3002         0.778359   
     12. B(C  10,C   9)                  1.4635         0.477002   
     13. B(C  11,C  10)                  1.3238         0.796853   
     14. B(C  11,C   7)                  1.4580         0.486602   
     15. B(F  12,B   0)                  1.4592         0.467026   
     16. B(F  13,B   0)                  1.4450         0.492080   
     17. B(H  14,C   2)                  1.0979         0.349819   
     18. B(H  15,C   3)                  1.0794         0.374335   
     19. B(H  16,C   4)                  1.0883         0.362414   
     20. B(H  17,C   6)                  1.0819         0.370990   
     21. B(H  18,C   9)                  1.1018         0.344773   
     22. B(H  19,C  10)                  1.0955         0.352905   
     23. B(H  20,C  11)                  1.0695         0.388336   
     24. A(N   1,B   0,F  13)          112.0763         0.383676   
     25. A(N   1,B   0,F  12)          108.6322         0.380211   
     26. A(N   8,B   0,F  13)          109.8724         0.384028   
     27. A(N   8,B   0,F  12)          107.1355         0.380559   
     28. A(N   1,B   0,N   8)          107.0510         0.370262   
     29. A(F  12,B   0,F  13)          111.8400         0.394464   
     30. A(B   0,N   1,C   5)          127.0819         0.401935   
     31. A(C   2,N   1,C   5)          107.1540         0.433607   
     32. A(B   0,N   1,C   2)          125.7642         0.398359   
     33. A(N   1,C   2,H  14)          130.9467         0.349508   
     34. A(N   1,C   2,C   3)          109.8936         0.432802   
     35. A(C   3,C   2,H  14)          119.1597         0.351905   
     36. A(C   4,C   3,H  15)          124.1275         0.355867   
     37. A(C   2,C   3,C   4)          105.8476         0.435835   
     38. A(C   2,C   3,H  15)          130.0249         0.355966   
     39. A(C   5,C   4,H  16)          121.7373         0.355912   
     40. A(C   3,C   4,H  16)          131.0352         0.353919   
     41. A(C   3,C   4,C   5)          107.2275         0.438314   
     42. A(N   1,C   5,C   4)          109.8773         0.439262   
     43. A(C   4,C   5,C   6)          133.4848         0.418528   
     44. A(N   1,C   5,C   6)          116.6379         0.416956   
     45. A(C   5,C   6,C   7)          126.1378         0.434494   
     46. A(C   5,C   6,H  17)          117.8183         0.340240   
     47. A(C   7,C   6,H  17)          116.0439         0.370329   
     48. A(C   6,C   7,N   8)          116.2789         0.433738   
     49. A(N   8,C   7,C  11)          110.0551         0.397207   
     50. A(C   6,C   7,C  11)          133.6659         0.434875   
     51. A(C   7,N   8,C   9)          106.8993         0.428960   
     52. A(B   0,N   8,C   9)          126.2883         0.414490   
     53. A(B   0,N   8,C   7)          126.8125         0.383117   
     54. A(C  10,C   9,H  18)          123.5489         0.335266   
     55. A(N   8,C   9,H  18)          127.8674         0.361866   
     56. A(N   8,C   9,C  10)          108.5836         0.428547   
     57. A(C   9,C  10,C  11)          111.3674         0.433189   
     58. A(C  11,C  10,H  19)          122.9674         0.367060   
     59. A(C   9,C  10,H  19)          125.6652         0.336569   
     60. A(C   7,C  11,C  10)          103.0946         0.434744   
     61. A(C  10,C  11,H  20)          133.0583         0.373146   
     62. A(C   7,C  11,H  20)          123.8471         0.343132   
     63. D(C   5,N   1,B   0,N   8)     -0.0004         0.010762   
     64. D(C   2,N   1,B   0,F  12)     64.6202         0.010762   
     65. D(C   2,N   1,B   0,F  13)    -59.4630         0.010762   
     66. D(C   5,N   1,B   0,F  12)   -115.3812         0.010762   
     67. D(C   2,N   1,B   0,N   8)   -179.9989         0.010762   
     68. D(H  14,C   2,N   1,B   0)     -0.0007         0.031680   
     69. D(C   3,C   2,N   1,B   0)    179.9990         0.031680   
     70. D(H  14,C   2,N   1,C   5)   -179.9995         0.031680   
     71. D(C   3,C   2,N   1,C   5)      0.0001         0.031680   
     72. D(H  15,C   3,C   2,N   1)   -179.9994         0.027293   
     73. D(C   4,C   3,C   2,H  14)    179.9996         0.027293   
     74. D(H  15,C   3,C   2,H  14)      0.0003         0.027293   
     75. D(C   4,C   3,C   2,N   1)     -0.0001         0.027293   
     76. D(C   5,C   4,C   3,H  15)    179.9994         0.027198   
     77. D(C   5,C   4,C   3,C   2)     -0.0000         0.027198   
     78. D(H  16,C   4,C   3,H  15)     -0.0005         0.027198   
     79. D(H  16,C   4,C   3,C   2)   -179.9999         0.027198   
     80. D(C   6,C   5,C   4,H  16)      0.0008         0.029187   
     81. D(C   6,C   5,C   4,C   3)   -179.9991         0.029187   
     82. D(N   1,C   5,C   4,H  16)   -180.0000         0.029187   
     83. D(N   1,C   5,C   4,C   3)      0.0001         0.029187   
     84. D(C   6,C   5,N   1,B   0)      0.0004         0.035369   
     85. D(C   4,C   5,N   1,C   2)     -0.0002         0.035369   
     86. D(C   4,C   5,N   1,B   0)   -179.9989         0.035369   
     87. D(C   6,C   5,N   1,C   2)    179.9992         0.035369   
     88. D(H  17,C   6,C   5,N   1)   -179.9992         0.015965   
     89. D(C   7,C   6,C   5,C   4)    179.9992         0.015965   
     90. D(H  17,C   6,C   5,C   4)     -0.0001         0.015965   
     91. D(C   7,C   6,C   5,N   1)      0.0001         0.015965   
     92. D(N   8,C   7,C   6,H  17)    179.9989         0.046015   
     93. D(N   8,C   7,C   6,C   5)     -0.0004         0.046015   
     94. D(C  11,C   7,C   6,H  17)     -0.0008         0.046015   
     95. D(C  11,C   7,C   6,C   5)    179.9999         0.046015   
     96. D(C   9,N   8,C   7,C  11)      0.0003         0.019553   
     97. D(C   9,N   8,C   7,C   6)   -179.9995         0.019553   
     98. D(B   0,N   8,C   7,C  11)   -179.9999         0.019553   
     99. D(B   0,N   8,C   7,C   6)      0.0004         0.019553   
    100. D(C   9,N   8,B   0,F  12)    -63.6238         0.010869   
    101. D(C   9,N   8,B   0,N   1)    179.9998         0.010869   
    102. D(C   7,N   8,B   0,F  13)   -121.9292         0.010869   
    103. D(C   7,N   8,B   0,F  12)    116.3764         0.010869   
    104. D(C   7,N   8,B   0,N   1)     -0.0000         0.010869   
    105. D(H  18,C   9,N   8,C   7)    179.9996         0.051312   
    106. D(H  18,C   9,N   8,B   0)     -0.0002         0.051312   
    107. D(C  10,C   9,N   8,C   7)     -0.0003         0.051312   
    108. D(C  10,C   9,N   8,B   0)    179.9998         0.051312   
    109. D(H  19,C  10,C   9,H  18)     -0.0001         0.015491   
    110. D(H  19,C  10,C   9,N   8)    179.9999         0.015491   
    111. D(C  11,C  10,C   9,H  18)   -179.9996         0.015491   
    112. D(C  11,C  10,C   9,N   8)      0.0003         0.015491   
    113. D(H  20,C  11,C  10,H  19)     -0.0008         0.045846   
    114. D(H  20,C  11,C  10,C   9)    179.9988         0.045846   
    115. D(C   7,C  11,C  10,H  19)   -179.9997         0.045846   
    116. D(C   7,C  11,C  10,C   9)     -0.0001         0.045846   
    117. D(H  20,C  11,C   7,N   8)   -179.9991         0.016122   
    118. D(H  20,C  11,C   7,C   6)      0.0006         0.016122   
    119. D(C  10,C  11,C   7,N   8)     -0.0001         0.016122   
    120. D(C  10,C  11,C   7,C   6)    179.9996         0.016122   
    -----------------------------------------------------------------

Number of atoms                         .... 21
Number of degrees of freedom            .... 120


         *************************************************************
         *                GEOMETRY OPTIMIZATION CYCLE   1            *
         *************************************************************
---------------------------------
CARTESIAN COORDINATES (ANGSTROEM)
---------------------------------
  B     0.066097   -1.312457    0.724497
  N     1.253131   -0.520662    0.175009
  C     2.560398   -0.884831    0.262699
  C     3.359893    0.073920   -0.345879
  C     2.490420    1.050289   -0.815696
  C     1.211466    0.654542   -0.479980
  C    -0.108715    1.239845   -0.690487
  C    -1.262613    0.723958   -0.298585
  N    -1.195221   -0.517706    0.391355
  C    -2.416206   -0.852243    0.687573
  C    -3.318658    0.185171    0.186474
  C    -2.650287    1.155536   -0.416918
  F     0.171663   -1.361571    2.179069
  F    -0.019245   -2.634192    0.146780
  H     3.032868   -1.766676    0.714885
  H     4.432390    0.111258   -0.462333
  H     2.680334    1.977728   -1.352437
  H    -0.164406    2.184450   -1.214992
  H    -2.760112   -1.752033    1.222510
  H    -4.409788    0.184220    0.284158
  H    -2.953410    2.061455   -0.897702

----------------------------
CARTESIAN COORDINATES (A.U.)
----------------------------
  NO LB    ZA    FRAG    MASS        X           Y           Z
   0 B   5.0000    0    10.810    0.124905   -2.480184    1.369101
   1 N   7.0000    0    14.007    2.368074   -0.983909    0.330719
   2 C   6.0000    0    12.011    4.838451   -1.672088    0.496429
   3 C   6.0000    0    12.011    6.349278    0.139689   -0.653617
   4 C   6.0000    0    12.011    4.706212    1.984759   -1.541442
   5 C   6.0000    0    12.011    2.289339    1.236905   -0.907031
   6 C   6.0000    0    12.011   -0.205442    2.342967   -1.304831
   7 C   6.0000    0    12.011   -2.385993    1.368082   -0.564244
   8 N   7.0000    0    14.007   -2.258640   -0.978323    0.739554
   9 C   6.0000    0    12.011   -4.565968   -1.610506    1.299325
  10 C   6.0000    0    12.011   -6.271355    0.349922    0.352385
  11 C   6.0000    0    12.011   -5.008317    2.183647   -0.787861
  12 F   9.0000    0    18.998    0.324396   -2.572996    4.117844
  13 F   9.0000    0    18.998   -0.036368   -4.977901    0.277374
  14 H   1.0000    0     1.008    5.731290   -3.338534    1.350937
  15 H   1.0000    0     1.008    8.376003    0.210247   -0.873683
  16 H   1.0000    0     1.008    5.065097    3.737364   -2.555736
  17 H   1.0000    0     1.008   -0.310682    4.128012   -2.296002
  18 H   1.0000    0     1.008   -5.215856   -3.310863    2.310209
  19 H   1.0000    0     1.008   -8.333292    0.348125    0.536981
  20 H   1.0000    0     1.008   -5.581136    3.895585   -1.696411

      -----------------------------------------------------------      
     |                   =====================                   |     
     |                           x T B                           |     
     |                   =====================                   |     
     |                         S. Grimme                         |     
     |          Mulliken Center for Theoretical Chemistry        |     
     |                    University of Bonn                     |     
      -----------------------------------------------------------      

   * xtb version 6.7.1 (edcfbbe) compiled by 'albert@albert-system' on 2024-07-22

   xtb is free software: you can redistribute it and/or modify it under
   the terms of the GNU Lesser General Public License as published by
   the Free Software Foundation, either version 3 of the License, or
   (at your option) any later version.
   
   xtb is distributed in the hope that it will be useful,
   but WITHOUT ANY WARRANTY; without even the implied warranty of
   MERCHANTABILITY or FITNESS FOR A PARTICULAR PURPOSE.  See the
   GNU Lesser General Public License for more details.
   
   Cite this work as:
   * C. Bannwarth, E. Caldeweyher, S. Ehlert, A. Hansen, P. Pracht,
     J. Seibert, S. Spicher, S. Grimme, WIREs Comput. Mol. Sci., 2020, 11,
     e01493. DOI: 10.1002/wcms.1493
   
   for GFN2-xTB:
   * C. Bannwarth, S. Ehlert and S. Grimme., J. Chem. Theory Comput., 2019,
     15, 1652-1671. DOI: 10.1021/acs.jctc.8b01176
   for GFN1-xTB:
   * S. Grimme, C. Bannwarth, P. Shushkov, J. Chem. Theory Comput., 2017,
     13, 1989-2009. DOI: 10.1021/acs.jctc.7b00118
   for GFN0-xTB:
   * P. Pracht, E. Caldeweyher, S. Ehlert, S. Grimme, ChemRxiv, 2019, preprint.
     DOI: 10.26434/chemrxiv.8326202.v1
   for GFN-FF:
   * S. Spicher and S. Grimme, Angew. Chem. Int. Ed., 2020, 59, 15665-15673.
     DOI: 10.1002/anie.202004239
   
   for ALPB and GBSA implicit solvation:
   * S. Ehlert, M. Stahn, S. Spicher, S. Grimme, J. Chem. Theory Comput.,
     2021, 17, 4250-4261. DOI: 10.1021/acs.jctc.1c00471
   
   for ddCOSMO and CPCM-X implicit solvation:
   * M. Stahn, S. Ehlert, S. Grimme, J. Phys. Chem. A,
     2023, XX, XXXX-XXXX. DOI: 10.1021/acs.jpca.3c04382
   
   for DFT-D4:
   * E. Caldeweyher, C. Bannwarth and S. Grimme, J. Chem. Phys., 2017,
     147, 034112. DOI: 10.1063/1.4993215
   * E. Caldeweyher, S. Ehlert, A. Hansen, H. Neugebauer, S. Spicher,
     C. Bannwarth and S. Grimme, J. Chem. Phys., 2019, 150, 154122.
     DOI: 10.1063/1.5090222
   * E. Caldeweyher, J.-M. Mewes, S. Ehlert and S. Grimme, Phys. Chem. Chem. Phys.
     2020, 22, 8499-8512. DOI: 10.1039/D0CP00502A
   
   for sTDA-xTB:
   * S. Grimme and C. Bannwarth, J. Chem. Phys., 2016, 145, 054103.
     DOI: 10.1063/1.4959605
   
   in the mass-spec context:
   * V. Asgeirsson, C. Bauer and S. Grimme, Chem. Sci., 2017, 8, 4879.
     DOI: 10.1039/c7sc00601b
   * J. Koopman and S. Grimme, ACS Omega 2019, 4, 12, 15120-15133.
     DOI: 10.1021/acsomega.9b02011
   
   for metadynamics refer to:
   * S. Grimme, J. Chem. Theory Comput., 2019, 155, 2847-2862
     DOI: 10.1021/acs.jctc.9b00143
   
   for SPH calculations refer to:
   * S. Spicher and S. Grimme, J. Chem. Theory Comput., 2021, 17, 1701-1714
     DOI: 10.1021/acs.jctc.0c01306
   
   for ONIOM refer to:
   * C. Plett, A. Katbashev, S. Ehlert, S. Grimme, M. Bursch,
     Phys. Chem. Chem. Phys., 2023, 25, 17860-17868. DOI: 10.1039/D3CP02178E
   
   for DIPRO refer to:
   * J. Kohn, N. Gildemeister, S. Grimme, D. Fazzi, A. Hansen,
     J. Chem. Phys., 2023, just accepted.
   
   for PTB refer to:
   * S. Grimme, M. Mueller, A. Hansen, J. Chem. Phys., 2023, 158, 124111.
     DOI: 10.1063/5.0137838
   
   with help from (in alphabetical order)
   P. Atkinson, C. Bannwarth, F. Bohle, G. Brandenburg, E. Caldeweyher
   M. Checinski, S. Dohm, S. Ehlert, S. Ehrlich, I. Gerasimov, C. Hölzer
   A. Katbashev, J. Kohn, J. Koopman, C. Lavigne, S. Lehtola, F. März, M. Müller,
   F. Musil, H. Neugebauer, J. Pisarek, C. Plett, P. Pracht, F. Pultar,
   J. Seibert, P. Shushkov, S. Spicher, M. Stahn, M. Steiner, T. Strunk,
   J. Stückrath, T. Rose, and J. Unsleber
   
 * started run on 2025/05/03 at 16:14:38.443     
   ID    Z sym.   atoms
    1    5 B      1
    2    7 N      2, 9
    3    6 C      3-8, 10-12
    4    9 F      13, 14
    5    1 H      15-21

           -------------------------------------------------
          |                Calculation Setup                |
           -------------------------------------------------

          program call               : /home/marshall/orca_6_0_0/xtb Bod_xtb_opt_XTB.xyz --grad -c 0 -u 0 -P 5 --namespace Bod_xtb_opt --input Bod_xtb_opt_XTB.input.tmp --acc 0.200000
          calculation namespace      : Bod_xtb_opt
          coordinate file            : Bod_xtb_opt_XTB.xyz
          omp threads                :                     5


           -------------------------------------------------
          |                 G F N 2 - x T B                 |
           -------------------------------------------------

        Reference                      10.1021/acs.jctc.8b01176
      * Hamiltonian:
        H0-scaling (s, p, d)           1.850000    2.230000    2.230000
        zeta-weighting                 0.500000
      * Dispersion:
        s8                             2.700000
        a1                             0.520000
        a2                             5.000000
        s9                             5.000000
      * Repulsion:
        kExp                           1.500000    1.000000
        rExp                           1.000000
      * Coulomb:
        alpha                          2.000000
        third order                    shell-resolved
        anisotropic                    true
        a3                             3.000000
        a5                             4.000000
        cn-shift                       1.200000
        cn-exp                         4.000000
        max-rad                        5.000000


          ...................................................
          :                      SETUP                      :
          :.................................................:
          :  # basis functions                  63          :
          :  # atomic orbitals                  63          :
          :  # shells                           35          :
          :  # electrons                        70          :
          :  max. iterations                   250          :
          :  Hamiltonian                  GFN2-xTB          :
          :  restarted?                      false          :
          :  GBSA solvation                  false          :
          :  PC potential                    false          :
          :  electronic temp.          300.0000000     K    :
          :  accuracy                    0.2000000          :
          :  -> integral cutoff          0.3198970E+02      :
          :  -> integral neglect         0.2000000E-08      :
          :  -> SCF convergence          0.2000000E-06 Eh   :
          :  -> wf. convergence          0.2000000E-04 e    :
          :  Broyden damping             0.4000000          :
          :  net charge                          0          :
          :  unpaired electrons                  0          :
          ...................................................

 iter      E             dE          RMSdq      gap      omega  full diag
   1    -39.8187138 -0.398187E+02  0.535E+00    2.15       0.0  T
   2    -39.9619477 -0.143234E+00  0.372E+00    1.53       1.0  T
   3    -39.9614959  0.451849E-03  0.190E+00    2.17       1.0  T
   4    -39.9859150 -0.244191E-01  0.967E-01    1.58       1.0  T
   5    -40.0067920 -0.208770E-01  0.369E-01    1.79       1.0  T
   6    -40.0086857 -0.189371E-02  0.158E-01    1.70       1.0  T
   7    -40.0089253 -0.239548E-03  0.731E-02    1.72       1.0  T
   8    -40.0089659 -0.406271E-04  0.333E-02    1.73       1.0  T
   9    -40.0089876 -0.216400E-04  0.825E-03    1.72       2.6  T
  10    -40.0089881 -0.506434E-06  0.457E-03    1.72       4.8  T
  11    -40.0089883 -0.226950E-06  0.199E-03    1.72      11.0  T
  12    -40.0089883 -0.588481E-07  0.511E-04    1.72      42.7  T
  13    -40.0089883 -0.225625E-08  0.208E-04    1.72     105.1  T
  14    -40.0089883 -0.990141E-10  0.929E-05    1.72     234.9  T
  15    -40.0089883 -0.125652E-09  0.359E-05    1.72     608.5  T

   *** convergence criteria satisfied after 15 iterations ***

         #    Occupation            Energy/Eh            Energy/eV
      -------------------------------------------------------------
         1        2.0000           -0.7530799             -20.4923
       ...           ...                  ...                  ...
        29        2.0000           -0.4504077             -12.2562
        30        2.0000           -0.4429319             -12.0528
        31        2.0000           -0.4402181             -11.9789
        32        2.0000           -0.4374936             -11.9048
        33        2.0000           -0.4318193             -11.7504
        34        2.0000           -0.4157274             -11.3125
        35        2.0000           -0.3960610             -10.7774 (HOMO)
        36                         -0.3328773              -9.0581 (LUMO)
        37                         -0.2244857              -6.1086
        38                         -0.2002487              -5.4490
        39                         -0.1780964              -4.8463
        40                         -0.1357164              -3.6930
       ...                                ...                  ...
        63                          0.7335055              19.9597
      -------------------------------------------------------------
                  HL-Gap            0.0631837 Eh            1.7193 eV
             Fermi-level           -0.3644691 Eh           -9.9177 eV

 SCC (total)                   0 d,  0 h,  0 min,  0.012 sec
 SCC setup                      ...        0 min,  0.000 sec (  1.860%)
 Dispersion                     ...        0 min,  0.000 sec (  1.384%)
 classical contributions        ...        0 min,  0.000 sec (  0.130%)
 integral evaluation            ...        0 min,  0.001 sec (  8.198%)
 iterations                     ...        0 min,  0.008 sec ( 72.690%)
 molecular gradient             ...        0 min,  0.002 sec ( 14.227%)
 printout                       ...        0 min,  0.000 sec (  1.375%)

         :::::::::::::::::::::::::::::::::::::::::::::::::::::
         ::                     SUMMARY                     ::
         :::::::::::::::::::::::::::::::::::::::::::::::::::::
         :: total energy             -39.499929859038 Eh    ::
         :: gradient norm              0.169216996119 Eh/a0 ::
         :: HOMO-LUMO gap              1.719315152262 eV    ::
         ::.................................................::
         :: SCC energy               -40.008951488216 Eh    ::
         :: -> isotropic ES            0.089485085826 Eh    ::
         :: -> anisotropic ES         -0.002474657077 Eh    ::
         :: -> anisotropic XC          0.013248926540 Eh    ::
         :: -> dispersion             -0.020964835456 Eh    ::
         :: repulsion energy           0.509021629179 Eh    ::
         :: add. restraining           0.000000000000 Eh    ::
         :: total charge               0.000000000000 e     ::
         :::::::::::::::::::::::::::::::::::::::::::::::::::::


Property printout bound to 'properties.out'

           -------------------------------------------------
          | TOTAL ENERGY              -39.499929859038 Eh   |
          | GRADIENT NORM               0.169216996119 Eh/α |
          | HOMO-LUMO GAP               1.719315152262 eV   |
           -------------------------------------------------

------------------------------------------------------------------------
 * finished run on 2025/05/03 at 16:14:38.463     
------------------------------------------------------------------------
 total:
 * wall-time:     0 d,  0 h,  0 min,  0.020 sec
 *  cpu-time:     0 d,  0 h,  0 min,  0.095 sec
 * ratio c/w:     4.695 speedup
 SCF:
 * wall-time:     0 d,  0 h,  0 min,  0.012 sec
 *  cpu-time:     0 d,  0 h,  0 min,  0.058 sec
 * ratio c/w:     4.908 speedup


-------------------------   --------------------
FINAL SINGLE POINT ENERGY       -39.499929859040
-------------------------   --------------------


-------------
DIPOLE MOMENT
-------------
                                X             Y             Z
Total Dipole Moment    :     -0.75200       1.78300      -1.05500
                        -----------------------------------------
Magnitude (a.u.)       :      2.20400
Magnitude (Debye)      :      5.60212

------------------------------------------------------------------------------
                         ORCA GEOMETRY RELAXATION STEP
------------------------------------------------------------------------------

Reading the OPT-File                    .... done
Getting information on internals        .... done
Copying old internal coords+grads       .... done
Making the new internal coordinates     .... (2022 redundants) done
Validating the new internal coordinates .... (2022 redundants) done
Calculating the B-matrix                .... done
Calculating the G,G- and P matrices     .... done
Transforming gradient to internals      .... done
Projecting the internal gradient        .... done
Number of atoms                         ....  21
Number of internal coordinates          .... 120
Current Energy                          ....   -39.499929859 Eh
Current gradient norm                   ....     0.169216996 Eh/bohr
Maximum allowed component of the step   ....  0.300
Current trust radius                    ....  0.300
Evaluating the initial hessian          ....  (Almloef) done
Projecting the Hessian                  .... done
Forming the augmented Hessian           .... done
Diagonalizing the augmented Hessian     .... done
Last element of RFO vector              ....  0.972229759
Lowest eigenvalues of augmented Hessian:
 -0.028846466  0.013918862  0.019635306  0.022366655  0.024052609
Length of the computed step             ....  0.240713067
The final length of the internal step   ....  0.240713067
Converting the step to Cartesian space:
 Initial RMS(Int)=    0.0219739961
Transforming coordinates:
 Iter   0:  RMS(Cart)=    0.0404611176 RMS(Int)=    1.9865867623
done
Storing new coordinates                 .... done

                                .--------------------.
          ----------------------|Geometry convergence|-------------------------
          Item                value                   Tolerance       Converged
          ---------------------------------------------------------------------
          RMS gradient        0.0113698695            0.0001000000      NO
          MAX gradient        0.0482849457            0.0003000000      NO
          RMS step            0.0219739961            0.0020000000      NO
          MAX step            0.0777046446            0.0040000000      NO
          ........................................................
          Max(Bonds)      0.0411      Max(Angles)    2.61
          Max(Dihed)        0.97      Max(Improp)    0.00
          ---------------------------------------------------------------------

The optimization has not yet converged - more geometry cycles are needed


    ---------------------------------------------------------------------------
                         Redundant Internal Coordinates
                            (Angstroem and degrees)

        Definition                    Value    dE/dq     Step     New-Value
    ----------------------------------------------------------------------------
     1. B(N   1,B   0)                1.5290  0.001960 -0.0038    1.5253   
     2. B(C   2,N   1)                1.3599  0.020150 -0.0170    1.3429   
     3. B(C   3,C   2)                1.3888 -0.006908  0.0046    1.3934   
     4. B(C   4,C   3)                1.3892  0.000845 -0.0006    1.3887   
     5. B(C   5,C   4)                1.3802 -0.014479  0.0123    1.3926   
     6. B(C   5,N   1)                1.3461 -0.023687  0.0188    1.3649   
     7. B(C   6,C   5)                1.4594  0.041099 -0.0411    1.4183   
     8. B(C   7,C   6)                1.3233 -0.048285  0.0316    1.3550   
     9. B(N   8,C   7)                1.4221  0.016019 -0.0176    1.4045   
    10. B(N   8,B   0)                1.5276 -0.005306  0.0053    1.5329   
    11. B(C   9,N   8)                1.3002 -0.014294  0.0088    1.3090   
    12. B(C  10,C   9)                1.4635  0.034767 -0.0355    1.4280   
    13. B(C  11,C  10)                1.3238 -0.040429  0.0268    1.3506   
    14. B(C  11,C   7)                1.4580  0.014916 -0.0153    1.4428   
    15. B(F  12,B   0)                1.4592  0.032165 -0.0343    1.4249   
    16. B(F  13,B   0)                1.4450  0.034224 -0.0348    1.4102   
    17. B(H  14,C   2)                1.0979  0.015954 -0.0223    1.0756   
    18. B(H  15,C   3)                1.0794  0.005769 -0.0076    1.0719   
    19. B(H  16,C   4)                1.0883  0.008982 -0.0121    1.0761   
    20. B(H  17,C   6)                1.0819 -0.002436  0.0032    1.0851   
    21. B(H  18,C   9)                1.1018  0.018164 -0.0257    1.0761   
    22. B(H  19,C  10)                1.0955  0.011304 -0.0157    1.0798   
    23. B(H  20,C  11)                1.0695  0.000496 -0.0006    1.0688   
    24. A(N   1,B   0,F  13)          112.08  0.001228   -0.27    111.81   
    25. A(N   1,B   0,F  12)          108.63 -0.001327    0.71    109.35   
    26. A(N   8,B   0,F  13)          109.87  0.001649   -0.34    109.54   
    27. A(N   8,B   0,F  12)          107.14  0.000162    0.43    107.57   
    28. A(N   1,B   0,N   8)          107.05 -0.005971    0.66    107.71   
    29. A(F  12,B   0,F  13)          111.84  0.003772   -1.09    110.75   
    30. A(B   0,N   1,C   5)          127.08  0.003755   -0.65    126.43   
    31. A(C   2,N   1,C   5)          107.15 -0.002015    0.30    107.46   
    32. A(B   0,N   1,C   2)          125.76 -0.001740    0.34    126.11   
    33. A(N   1,C   2,H  14)          130.95  0.018277   -2.61    128.33   
    34. A(N   1,C   2,C   3)          109.89 -0.002436    0.08    109.97   
    35. A(C   3,C   2,H  14)          119.16 -0.015841    2.54    121.70   
    36. A(C   4,C   3,H  15)          124.13 -0.001665    0.38    124.51   
    37. A(C   2,C   3,C   4)          105.85 -0.007243    0.81    106.66   
    38. A(C   2,C   3,H  15)          130.02  0.008909   -1.19    128.83   
    39. A(C   5,C   4,H  16)          121.74 -0.009456    1.26    123.00   
    40. A(C   3,C   4,H  16)          131.04  0.002365   -0.50    130.54   
    41. A(C   3,C   4,C   5)          107.23  0.007091   -0.76    106.47   
    42. A(N   1,C   5,C   4)          109.88  0.004603   -0.43    109.45   
    43. A(C   4,C   5,C   6)          133.48  0.005112   -0.83    132.65   
    44. A(N   1,C   5,C   6)          116.64 -0.009715    1.26    117.90   
    45. A(C   5,C   6,C   7)          126.14  0.016433   -1.88    124.26   
    46. A(C   5,C   6,H  17)          117.82 -0.002292    0.09    117.91   
    47. A(C   7,C   6,H  17)          116.04 -0.014141    1.79    117.83   
    48. A(C   6,C   7,N   8)          116.28 -0.016491    2.28    118.56   
    49. A(N   8,C   7,C  11)          110.06  0.015696   -2.27    107.79   
    50. A(C   6,C   7,C  11)          133.67  0.000795   -0.01    133.65   
    51. A(C   7,N   8,C   9)          106.90 -0.013865    1.62    108.52   
    52. A(B   0,N   8,C   9)          126.29  0.001876    0.06    126.35   
    53. A(B   0,N   8,C   7)          126.81  0.011989   -1.67    125.14   
    54. A(C  10,C   9,H  18)          123.55 -0.004477    0.74    124.29   
    55. A(N   8,C   9,H  18)          127.87  0.008893   -1.27    126.60   
    56. A(N   8,C   9,C  10)          108.58 -0.004417    0.53    109.12   
    57. A(C   9,C  10,C  11)          111.37  0.019159   -2.24    109.13   
    58. A(C  11,C  10,H  19)          122.97 -0.016870    2.17    125.14   
    59. A(C   9,C  10,H  19)          125.67 -0.002289    0.07    125.73   
    60. A(C   7,C  11,C  10)          103.09 -0.016573    2.36    105.45   
    61. A(C  10,C  11,H  20)          133.06  0.010238   -1.42    131.64   
    62. A(C   7,C  11,H  20)          123.85  0.006335   -0.93    122.91   
    63. D(C   5,N   1,B   0,N   8)     -0.00 -0.001334    0.49      0.49   
    64. D(C   2,N   1,B   0,F  12)     64.62  0.002827   -0.86     63.76   
    65. D(C   2,N   1,B   0,F  13)    -59.46 -0.001872    0.21    -59.26   
    66. D(C   5,N   1,B   0,F  12)   -115.38  0.002237   -0.71   -116.09   
    67. D(C   2,N   1,B   0,N   8)   -180.00 -0.000744    0.35   -179.65   
    68. D(H  14,C   2,N   1,B   0)     -0.00 -0.000364    0.10      0.10   
    69. D(C   3,C   2,N   1,B   0)    180.00 -0.000588    0.24    180.24   
    70. D(H  14,C   2,N   1,C   5)   -180.00  0.000128   -0.02   -180.02   
    71. D(C   3,C   2,N   1,C   5)      0.00 -0.000096    0.11      0.11   
    72. D(H  15,C   3,C   2,N   1)   -180.00  0.000085   -0.08   -180.08   
    73. D(C   4,C   3,C   2,H  14)    180.00 -0.000149    0.04    180.04   
    74. D(H  15,C   3,C   2,H  14)      0.00 -0.000108    0.04      0.04   
    75. D(C   4,C   3,C   2,N   1)     -0.00  0.000044   -0.07     -0.07   
    76. D(C   5,C   4,C   3,H  15)    180.00 -0.000015    0.01    180.01   
    77. D(C   5,C   4,C   3,C   2)     -0.00  0.000023    0.00      0.00   
    78. D(H  16,C   4,C   3,H  15)     -0.00 -0.000062    0.01      0.01   
    79. D(H  16,C   4,C   3,C   2)   -180.00 -0.000024    0.01   -179.99   
    80. D(C   6,C   5,C   4,H  16)      0.00 -0.000159    0.05      0.05   
    81. D(C   6,C   5,C   4,C   3)   -180.00 -0.000201    0.05   -179.95   
    82. D(N   1,C   5,C   4,H  16)   -180.00 -0.000041    0.06   -179.94   
    83. D(N   1,C   5,C   4,C   3)      0.00 -0.000084    0.07      0.07   
    84. D(C   6,C   5,N   1,B   0)      0.00  0.000707   -0.23     -0.22   
    85. D(C   4,C   5,N   1,C   2)     -0.00  0.000110   -0.11     -0.11   
    86. D(C   4,C   5,N   1,B   0)   -180.00  0.000611   -0.24   -180.23   
    87. D(C   6,C   5,N   1,C   2)    180.00  0.000206   -0.10    179.90   
    88. D(H  17,C   6,C   5,N   1)   -180.00 -0.000118   -0.02   -180.01   
    89. D(C   7,C   6,C   5,C   4)    180.00  0.000507   -0.14    179.86   
    90. D(H  17,C   6,C   5,C   4)     -0.00  0.000006   -0.00     -0.00   
    91. D(C   7,C   6,C   5,N   1)      0.00  0.000383   -0.15     -0.15   
    92. D(N   8,C   7,C   6,H  17)    180.00 -0.000041    0.01    180.01   
    93. D(N   8,C   7,C   6,C   5)     -0.00 -0.000534    0.15      0.15   
    94. D(C  11,C   7,C   6,H  17)     -0.00 -0.000115    0.01      0.01   
    95. D(C  11,C   7,C   6,C   5)    180.00 -0.000608    0.15    180.15   
    96. D(C   9,N   8,C   7,C  11)      0.00 -0.000446    0.15      0.15   
    97. D(C   9,N   8,C   7,C   6)   -180.00 -0.000502    0.15   -179.85   
    98. D(B   0,N   8,C   7,C  11)   -180.00 -0.000302    0.23   -179.77   
    99. D(B   0,N   8,C   7,C   6)      0.00 -0.000359    0.23      0.23   
   100. D(C   9,N   8,B   0,F  12)    -63.62 -0.003092    0.97    -62.65   
   101. D(C   9,N   8,B   0,N   1)    180.00  0.001327   -0.40    179.60   
   102. D(C   7,N   8,B   0,F  13)   -121.93  0.002382   -0.39   -122.32   
   103. D(C   7,N   8,B   0,F  12)    116.38 -0.003262    0.87    117.25   
   104. D(C   7,N   8,B   0,N   1)     -0.00  0.001157   -0.50     -0.50   
   105. D(H  18,C   9,N   8,C   7)    180.00  0.000134    0.01    180.01   
   106. D(H  18,C   9,N   8,B   0)     -0.00 -0.000008   -0.08     -0.08   
   107. D(C  10,C   9,N   8,C   7)     -0.00  0.000408   -0.14     -0.14   
   108. D(C  10,C   9,N   8,B   0)    180.00  0.000266   -0.22    179.78   
   109. D(H  19,C  10,C   9,H  18)     -0.00  0.000092   -0.05     -0.05   
   110. D(H  19,C  10,C   9,N   8)    180.00 -0.000167    0.09    180.08   
   111. D(C  11,C  10,C   9,H  18)   -180.00  0.000014   -0.05   -180.05   
   112. D(C  11,C  10,C   9,N   8)      0.00 -0.000245    0.08      0.08   
   113. D(H  20,C  11,C  10,H  19)     -0.00  0.000074   -0.02     -0.02   
   114. D(H  20,C  11,C  10,C   9)    180.00  0.000150   -0.02    179.98   
   115. D(C   7,C  11,C  10,H  19)   -180.00 -0.000111    0.01   -179.99   
   116. D(C   7,C  11,C  10,C   9)     -0.00 -0.000036    0.01      0.01   
   117. D(H  20,C  11,C   7,N   8)   -180.00  0.000122   -0.07   -180.07   
   118. D(H  20,C  11,C   7,C   6)      0.00  0.000192   -0.07     -0.07   
   119. D(C  10,C  11,C   7,N   8)     -0.00  0.000285   -0.09     -0.09   
   120. D(C  10,C  11,C   7,C   6)    180.00  0.000355   -0.09    179.91   
    ----------------------------------------------------------------------------

Geometry step timings:
Preparation and reading OPT file:      0.000 s ( 5.878 %)
Internal coordinates            :      0.000 s ( 1.437 %)
B/P matrices and projection     :      0.001 s (25.967 %)
Hessian update/contruction      :      0.000 s (12.226 %)
Making the step                 :      0.001 s (18.025 %)
Converting the step to Cartesian:      0.000 s ( 2.821 %)
Storing new data                :      0.000 s ( 1.097 %)
Checking convergence            :      0.000 s ( 0.104 %)
Final printing                  :      0.001 s (32.393 %)
Total time                      :      0.004 s

Time for energy+gradient        :      0.026 s
Time for complete geometry iter :      0.031 s

         *************************************************************
         *                GEOMETRY OPTIMIZATION CYCLE   2            *
         *************************************************************
---------------------------------
CARTESIAN COORDINATES (ANGSTROEM)
---------------------------------
  B     0.060618   -1.298213    0.727207
  N     1.250314   -0.518784    0.176242
  C     2.540728   -0.880774    0.259945
  C     3.344854    0.079401   -0.350782
  C     2.493252    1.067632   -0.826878
  C     1.201573    0.672498   -0.488194
  C    -0.070799    1.261021   -0.703274
  C    -1.242144    0.716187   -0.294593
  N    -1.209747   -0.509393    0.390377
  C    -2.437656   -0.852481    0.687174
  C    -3.333212    0.149740    0.204622
  C    -2.621708    1.124157   -0.402359
  F     0.159203   -1.368513    2.146953
  F    -0.024054   -2.589926    0.167684
  H     2.958508   -1.760879    0.715760
  H     4.411441    0.094520   -0.456035
  H     2.707190    1.979364   -1.356958
  H    -0.109607    2.208217   -1.231275
  H    -2.746784   -1.739941    1.211459
  H    -4.408203    0.136335    0.305800
  H    -2.923768    2.029832   -0.882874

----------------------------
CARTESIAN COORDINATES (A.U.)
----------------------------
  NO LB    ZA    FRAG    MASS        X           Y           Z
   0 B   5.0000    0    10.810    0.114551   -2.453267    1.374223
   1 N   7.0000    0    14.007    2.362751   -0.980360    0.333049
   2 C   6.0000    0    12.011    4.801281   -1.664421    0.491224
   3 C   6.0000    0    12.011    6.320858    0.150046   -0.662882
   4 C   6.0000    0    12.011    4.711563    2.017531   -1.562573
   5 C   6.0000    0    12.011    2.270644    1.270838   -0.922553
   6 C   6.0000    0    12.011   -0.133790    2.382985   -1.328995
   7 C   6.0000    0    12.011   -2.347312    1.353398   -0.556699
   8 N   7.0000    0    14.007   -2.286091   -0.962612    0.737705
   9 C   6.0000    0    12.011   -4.606503   -1.610955    1.298571
  10 C   6.0000    0    12.011   -6.298858    0.282968    0.386679
  11 C   6.0000    0    12.011   -4.954309    2.124348   -0.760349
  12 F   9.0000    0    18.998    0.300849   -2.586115    4.057153
  13 F   9.0000    0    18.998   -0.045455   -4.894251    0.316877
  14 H   1.0000    0     1.008    5.590769   -3.327578    1.352590
  15 H   1.0000    0     1.008    8.336416    0.178618   -0.861781
  16 H   1.0000    0     1.008    5.115848    3.740455   -2.564279
  17 H   1.0000    0     1.008   -0.207127    4.172925   -2.326772
  18 H   1.0000    0     1.008   -5.190669   -3.288013    2.289326
  19 H   1.0000    0     1.008   -8.330296    0.257636    0.577878
  20 H   1.0000    0     1.008   -5.525121    3.835826   -1.668390

      -----------------------------------------------------------      
     |                   =====================                   |     
     |                           x T B                           |     
     |                   =====================                   |     
     |                         S. Grimme                         |     
     |          Mulliken Center for Theoretical Chemistry        |     
     |                    University of Bonn                     |     
      -----------------------------------------------------------      

   * xtb version 6.7.1 (edcfbbe) compiled by 'albert@albert-system' on 2024-07-22

   xtb is free software: you can redistribute it and/or modify it under
   the terms of the GNU Lesser General Public License as published by
   the Free Software Foundation, either version 3 of the License, or
   (at your option) any later version.
   
   xtb is distributed in the hope that it will be useful,
   but WITHOUT ANY WARRANTY; without even the implied warranty of
   MERCHANTABILITY or FITNESS FOR A PARTICULAR PURPOSE.  See the
   GNU Lesser General Public License for more details.
   
   Cite this work as:
   * C. Bannwarth, E. Caldeweyher, S. Ehlert, A. Hansen, P. Pracht,
     J. Seibert, S. Spicher, S. Grimme, WIREs Comput. Mol. Sci., 2020, 11,
     e01493. DOI: 10.1002/wcms.1493
   
   for GFN2-xTB:
   * C. Bannwarth, S. Ehlert and S. Grimme., J. Chem. Theory Comput., 2019,
     15, 1652-1671. DOI: 10.1021/acs.jctc.8b01176
   for GFN1-xTB:
   * S. Grimme, C. Bannwarth, P. Shushkov, J. Chem. Theory Comput., 2017,
     13, 1989-2009. DOI: 10.1021/acs.jctc.7b00118
   for GFN0-xTB:
   * P. Pracht, E. Caldeweyher, S. Ehlert, S. Grimme, ChemRxiv, 2019, preprint.
     DOI: 10.26434/chemrxiv.8326202.v1
   for GFN-FF:
   * S. Spicher and S. Grimme, Angew. Chem. Int. Ed., 2020, 59, 15665-15673.
     DOI: 10.1002/anie.202004239
   
   for ALPB and GBSA implicit solvation:
   * S. Ehlert, M. Stahn, S. Spicher, S. Grimme, J. Chem. Theory Comput.,
     2021, 17, 4250-4261. DOI: 10.1021/acs.jctc.1c00471
   
   for ddCOSMO and CPCM-X implicit solvation:
   * M. Stahn, S. Ehlert, S. Grimme, J. Phys. Chem. A,
     2023, XX, XXXX-XXXX. DOI: 10.1021/acs.jpca.3c04382
   
   for DFT-D4:
   * E. Caldeweyher, C. Bannwarth and S. Grimme, J. Chem. Phys., 2017,
     147, 034112. DOI: 10.1063/1.4993215
   * E. Caldeweyher, S. Ehlert, A. Hansen, H. Neugebauer, S. Spicher,
     C. Bannwarth and S. Grimme, J. Chem. Phys., 2019, 150, 154122.
     DOI: 10.1063/1.5090222
   * E. Caldeweyher, J.-M. Mewes, S. Ehlert and S. Grimme, Phys. Chem. Chem. Phys.
     2020, 22, 8499-8512. DOI: 10.1039/D0CP00502A
   
   for sTDA-xTB:
   * S. Grimme and C. Bannwarth, J. Chem. Phys., 2016, 145, 054103.
     DOI: 10.1063/1.4959605
   
   in the mass-spec context:
   * V. Asgeirsson, C. Bauer and S. Grimme, Chem. Sci., 2017, 8, 4879.
     DOI: 10.1039/c7sc00601b
   * J. Koopman and S. Grimme, ACS Omega 2019, 4, 12, 15120-15133.
     DOI: 10.1021/acsomega.9b02011
   
   for metadynamics refer to:
   * S. Grimme, J. Chem. Theory Comput., 2019, 155, 2847-2862
     DOI: 10.1021/acs.jctc.9b00143
   
   for SPH calculations refer to:
   * S. Spicher and S. Grimme, J. Chem. Theory Comput., 2021, 17, 1701-1714
     DOI: 10.1021/acs.jctc.0c01306
   
   for ONIOM refer to:
   * C. Plett, A. Katbashev, S. Ehlert, S. Grimme, M. Bursch,
     Phys. Chem. Chem. Phys., 2023, 25, 17860-17868. DOI: 10.1039/D3CP02178E
   
   for DIPRO refer to:
   * J. Kohn, N. Gildemeister, S. Grimme, D. Fazzi, A. Hansen,
     J. Chem. Phys., 2023, just accepted.
   
   for PTB refer to:
   * S. Grimme, M. Mueller, A. Hansen, J. Chem. Phys., 2023, 158, 124111.
     DOI: 10.1063/5.0137838
   
   with help from (in alphabetical order)
   P. Atkinson, C. Bannwarth, F. Bohle, G. Brandenburg, E. Caldeweyher
   M. Checinski, S. Dohm, S. Ehlert, S. Ehrlich, I. Gerasimov, C. Hölzer
   A. Katbashev, J. Kohn, J. Koopman, C. Lavigne, S. Lehtola, F. März, M. Müller,
   F. Musil, H. Neugebauer, J. Pisarek, C. Plett, P. Pracht, F. Pultar,
   J. Seibert, P. Shushkov, S. Spicher, M. Stahn, M. Steiner, T. Strunk,
   J. Stückrath, T. Rose, and J. Unsleber
   
 * started run on 2025/05/03 at 16:14:38.473     
   ID    Z sym.   atoms
    1    5 B      1
    2    7 N      2, 9
    3    6 C      3-8, 10-12
    4    9 F      13, 14
    5    1 H      15-21

           -------------------------------------------------
          |                Calculation Setup                |
           -------------------------------------------------

          program call               : /home/marshall/orca_6_0_0/xtb Bod_xtb_opt_XTB.xyz --grad -c 0 -u 0 -P 5 --namespace Bod_xtb_opt --input Bod_xtb_opt_XTB.input.tmp --acc 0.200000
          calculation namespace      : Bod_xtb_opt
          coordinate file            : Bod_xtb_opt_XTB.xyz
          omp threads                :                     5


           -------------------------------------------------
          |                 G F N 2 - x T B                 |
           -------------------------------------------------

        Reference                      10.1021/acs.jctc.8b01176
      * Hamiltonian:
        H0-scaling (s, p, d)           1.850000    2.230000    2.230000
        zeta-weighting                 0.500000
      * Dispersion:
        s8                             2.700000
        a1                             0.520000
        a2                             5.000000
        s9                             5.000000
      * Repulsion:
        kExp                           1.500000    1.000000
        rExp                           1.000000
      * Coulomb:
        alpha                          2.000000
        third order                    shell-resolved
        anisotropic                    true
        a3                             3.000000
        a5                             4.000000
        cn-shift                       1.200000
        cn-exp                         4.000000
        max-rad                        5.000000

q/qsh data taken from xtbrestart
CAMM data taken from xtbrestart

          ...................................................
          :                      SETUP                      :
          :.................................................:
          :  # basis functions                  63          :
          :  # atomic orbitals                  63          :
          :  # shells                           35          :
          :  # electrons                        70          :
          :  max. iterations                   250          :
          :  Hamiltonian                  GFN2-xTB          :
          :  restarted?                       true          :
          :  GBSA solvation                  false          :
          :  PC potential                    false          :
          :  electronic temp.          300.0000000     K    :
          :  accuracy                    0.2000000          :
          :  -> integral cutoff          0.3198970E+02      :
          :  -> integral neglect         0.2000000E-08      :
          :  -> SCF convergence          0.2000000E-06 Eh   :
          :  -> wf. convergence          0.2000000E-04 e    :
          :  Broyden damping             0.4000000          :
          :  net charge                          0          :
          :  unpaired electrons                  0          :
          ...................................................

 iter      E             dE          RMSdq      gap      omega  full diag
   1    -40.0330933 -0.400331E+02  0.483E-01    1.74       0.0  T
   2    -40.0311618  0.193153E-02  0.486E-01    1.85       1.0  T
   3    -40.0369490 -0.578719E-02  0.181E-01    1.78       1.0  T
   4    -40.0370066 -0.575894E-04  0.582E-02    1.77       1.0  T
   5    -40.0370435 -0.368958E-04  0.251E-02    1.79       1.0  T
   6    -40.0370542 -0.107289E-04  0.814E-03    1.78       2.7  T
   7    -40.0370546 -0.430555E-06  0.427E-03    1.78       5.1  T
   8    -40.0370549 -0.230549E-06  0.153E-03    1.78      14.3  T
   9    -40.0370549 -0.469491E-08  0.707E-04    1.78      30.9  T
  10    -40.0370549 -0.394614E-08  0.272E-04    1.78      80.2  T
  11    -40.0370549 -0.746205E-09  0.879E-05    1.78     248.2  T
  12    -40.0370549 -0.626343E-10  0.376E-05    1.78     580.2  T

   *** convergence criteria satisfied after 12 iterations ***

         #    Occupation            Energy/Eh            Energy/eV
      -------------------------------------------------------------
         1        2.0000           -0.7582541             -20.6331
       ...           ...                  ...                  ...
        29        2.0000           -0.4492249             -12.2240
        30        2.0000           -0.4417097             -12.0195
        31        2.0000           -0.4395311             -11.9602
        32        2.0000           -0.4359745             -11.8635
        33        2.0000           -0.4323350             -11.7644
        34        2.0000           -0.4207469             -11.4491
        35        2.0000           -0.3986675             -10.8483 (HOMO)
        36                         -0.3332491              -9.0682 (LUMO)
        37                         -0.2206274              -6.0036
        38                         -0.1972594              -5.3677
        39                         -0.1799782              -4.8975
        40                         -0.1366537              -3.7185
       ...                                ...                  ...
        63                          0.6961024              18.9419
      -------------------------------------------------------------
                  HL-Gap            0.0654184 Eh            1.7801 eV
             Fermi-level           -0.3659583 Eh           -9.9582 eV

 SCC (total)                   0 d,  0 h,  0 min,  0.010 sec
 SCC setup                      ...        0 min,  0.000 sec (  2.285%)
 Dispersion                     ...        0 min,  0.000 sec (  1.179%)
 classical contributions        ...        0 min,  0.000 sec (  0.138%)
 integral evaluation            ...        0 min,  0.001 sec (  9.306%)
 iterations                     ...        0 min,  0.007 sec ( 69.810%)
 molecular gradient             ...        0 min,  0.002 sec ( 15.573%)
 printout                       ...        0 min,  0.000 sec (  1.539%)

         :::::::::::::::::::::::::::::::::::::::::::::::::::::
         ::                     SUMMARY                     ::
         :::::::::::::::::::::::::::::::::::::::::::::::::::::
         :: total energy             -39.521110753814 Eh    ::
         :: gradient norm              0.091365660329 Eh/a0 ::
         :: HOMO-LUMO gap              1.780125786567 eV    ::
         ::.................................................::
         :: SCC energy               -40.037017662666 Eh    ::
         :: -> isotropic ES            0.087382800723 Eh    ::
         :: -> anisotropic ES         -0.002657560135 Eh    ::
         :: -> anisotropic XC          0.012043975284 Eh    ::
         :: -> dispersion             -0.021072030501 Eh    ::
         :: repulsion energy           0.515906908852 Eh    ::
         :: add. restraining           0.000000000000 Eh    ::
         :: total charge               0.000000000000 e     ::
         :::::::::::::::::::::::::::::::::::::::::::::::::::::


Property printout bound to 'properties.out'

           -------------------------------------------------
          | TOTAL ENERGY              -39.521110753814 Eh   |
          | GRADIENT NORM               0.091365660329 Eh/α |
          | HOMO-LUMO GAP               1.780125786567 eV   |
           -------------------------------------------------

------------------------------------------------------------------------
 * finished run on 2025/05/03 at 16:14:38.494     
------------------------------------------------------------------------
 total:
 * wall-time:     0 d,  0 h,  0 min,  0.020 sec
 *  cpu-time:     0 d,  0 h,  0 min,  0.088 sec
 * ratio c/w:     4.331 speedup
 SCF:
 * wall-time:     0 d,  0 h,  0 min,  0.010 sec
 *  cpu-time:     0 d,  0 h,  0 min,  0.051 sec
 * ratio c/w:     4.912 speedup


-------------------------   --------------------
FINAL SINGLE POINT ENERGY       -39.521110753810
-------------------------   --------------------


-------------
DIPOLE MOMENT
-------------
                                X             Y             Z
Total Dipole Moment    :     -0.39600       1.74400      -1.05500
                        -----------------------------------------
Magnitude (a.u.)       :      2.07639
Magnitude (Debye)      :      5.27775

------------------------------------------------------------------------------
                         ORCA GEOMETRY RELAXATION STEP
------------------------------------------------------------------------------

Reading the OPT-File                    .... done
Getting information on internals        .... done
Copying old internal coords+grads       .... done
Making the new internal coordinates     .... (2022 redundants) done
Validating the new internal coordinates .... (2022 redundants) done
Calculating the B-matrix                .... done
Calculating the G,G- and P matrices     .... done
Transforming gradient to internals      .... done
Projecting the internal gradient        .... done
Number of atoms                         ....  21
Number of internal coordinates          .... 120
Current Energy                          ....   -39.521110754 Eh
Current gradient norm                   ....     0.091365660 Eh/bohr
Maximum allowed component of the step   ....  0.300
Current trust radius                    ....  0.300
Updating the Hessian (BFGS)             .... done
Forming the augmented Hessian           .... done
Diagonalizing the augmented Hessian     .... done
Last element of RFO vector              ....  0.971619695
Lowest eigenvalues of augmented Hessian:
 -0.014291694  0.013919115  0.019635340  0.022367472  0.024052552
Length of the computed step             ....  0.243457857
The final length of the internal step   ....  0.243457857
Converting the step to Cartesian space:
 Initial RMS(Int)=    0.0222245600
Transforming coordinates:
 Iter   0:  RMS(Cart)=    0.0328865918 RMS(Int)=    1.1472611141
done
Storing new coordinates                 .... done
The predicted energy change is          ....    -0.007569394
Previously predicted energy change      ....    -0.015258955
Actually observed energy change         ....    -0.021180895
Ratio of predicted to observed change   ....     1.388096012
New trust radius                        ....     0.300000000

                                .--------------------.
          ----------------------|Geometry convergence|-------------------------
          Item                value                   Tolerance       Converged
          ---------------------------------------------------------------------
          Energy change      -0.0211808948            0.0000050000      NO
          RMS gradient        0.0055375127            0.0001000000      NO
          MAX gradient        0.0192215725            0.0003000000      NO
          RMS step            0.0222245600            0.0020000000      NO
          MAX step            0.0767260290            0.0040000000      NO
          ........................................................
          Max(Bonds)      0.0406      Max(Angles)    3.74
          Max(Dihed)        1.32      Max(Improp)    0.00
          ---------------------------------------------------------------------

The optimization has not yet converged - more geometry cycles are needed


    ---------------------------------------------------------------------------
                         Redundant Internal Coordinates
                            (Angstroem and degrees)

        Definition                    Value    dE/dq     Step     New-Value
    ----------------------------------------------------------------------------
     1. B(N   1,B   0)                1.5253 -0.002129  0.0039    1.5292   
     2. B(C   2,N   1)                1.3428  0.010327 -0.0175    1.3254   
     3. B(C   3,C   2)                1.3934 -0.004560  0.0063    1.3996   
     4. B(C   4,C   3)                1.3887  0.004065 -0.0061    1.3826   
     5. B(C   5,C   4)                1.3926 -0.010729  0.0175    1.4100   
     6. B(C   5,N   1)                1.3649 -0.009965  0.0164    1.3813   
     7. B(C   6,C   5)                1.4183  0.018835 -0.0381    1.3801   
     8. B(C   7,C   6)                1.3550 -0.018819  0.0255    1.3805   
     9. B(N   8,C   7)                1.4044  0.010257 -0.0216    1.3828   
    10. B(N   8,B   0)                1.5328 -0.005973  0.0134    1.5462   
    11. B(C   9,N   8)                1.3090 -0.007957  0.0101    1.3192   
    12. B(C  10,C   9)                1.4280  0.013380 -0.0278    1.4003   
    13. B(C  11,C  10)                1.3506 -0.015393  0.0212    1.3718   
    14. B(C  11,C   7)                1.4427  0.010733 -0.0218    1.4208   
    15. B(F  12,B   0)                1.4249  0.019222 -0.0406    1.3843   
    16. B(F  13,B   0)                1.4102  0.018624 -0.0377    1.3725   
    17. B(H  14,C   2)                1.0756  0.002136 -0.0068    1.0688   
    18. B(H  15,C   3)                1.0719  0.000260 -0.0011    1.0708   
    19. B(H  16,C   4)                1.0761  0.002281 -0.0065    1.0697   
    20. B(H  17,C   6)                1.0851  0.001124 -0.0026    1.0825   
    21. B(H  18,C   9)                1.0761  0.002602 -0.0082    1.0679   
    22. B(H  19,C  10)                1.0798  0.003619 -0.0103    1.0696   
    23. B(H  20,C  11)                1.0688 -0.001353  0.0032    1.0720   
    24. A(N   1,B   0,F  13)          111.81  0.001429   -0.70    111.11   
    25. A(N   1,B   0,F  12)          109.34 -0.000619    0.57    109.91   
    26. A(N   8,B   0,F  13)          109.54 -0.001038    0.15    109.69   
    27. A(N   8,B   0,F  12)          107.56 -0.001782    1.14    108.70   
    28. A(N   1,B   0,N   8)          107.70 -0.000508    0.10    107.80   
    29. A(F  12,B   0,F  13)          110.75  0.002309   -1.14    109.61   
    30. A(B   0,N   1,C   5)          126.44  0.004039   -1.13    125.31   
    31. A(C   2,N   1,C   5)          107.45 -0.001990    0.52    107.98   
    32. A(B   0,N   1,C   2)          126.11 -0.002048    0.60    126.71   
    33. A(N   1,C   2,H  14)          128.33  0.013180   -3.74    124.60   
    34. A(N   1,C   2,C   3)          109.97 -0.001672    0.19    110.16   
    35. A(C   3,C   2,H  14)          121.70 -0.011508    3.54    125.24   
    36. A(C   4,C   3,H  15)          124.51 -0.003159    1.01    125.52   
    37. A(C   2,C   3,C   4)          106.66 -0.002337    0.48    107.15   
    38. A(C   2,C   3,H  15)          128.83  0.005496   -1.50    127.33   
    39. A(C   5,C   4,H  16)          123.00 -0.004963    1.37    124.37   
    40. A(C   3,C   4,H  16)          130.53  0.003619   -1.13    129.40   
    41. A(C   3,C   4,C   5)          106.47  0.001344   -0.23    106.24   
    42. A(N   1,C   5,C   4)          109.45  0.004655   -0.97    108.48   
    43. A(C   4,C   5,C   6)          132.65  0.003220   -1.00    131.65   
    44. A(N   1,C   5,C   6)          117.91 -0.007876    1.97    119.87   
    45. A(C   5,C   6,C   7)          124.26  0.008599   -2.01    122.25   
    46. A(C   5,C   6,H  17)          117.91 -0.002504    0.49    118.40   
    47. A(C   7,C   6,H  17)          117.83 -0.006095    1.52    119.35   
    48. A(C   6,C   7,N   8)          118.56 -0.007640    2.08    120.64   
    49. A(N   8,C   7,C  11)          107.78  0.002564   -0.95    106.83   
    50. A(C   6,C   7,C  11)          133.66  0.005076   -1.13    132.53   
    51. A(C   7,N   8,C   9)          108.52 -0.002257    0.55    109.08   
    52. A(B   0,N   8,C   9)          126.35 -0.001137    0.46    126.81   
    53. A(B   0,N   8,C   7)          125.13  0.003394   -1.01    124.12   
    54. A(C  10,C   9,H  18)          124.28 -0.005419    1.64    125.92   
    55. A(N   8,C   9,H  18)          126.59  0.008561   -2.43    124.15   
    56. A(N   8,C   9,C  10)          109.13 -0.003142    0.80    109.93   
    57. A(C   9,C  10,C  11)          109.14  0.009514   -2.27    106.87   
    58. A(C  11,C  10,H  19)          125.14 -0.007987    2.06    127.20   
    59. A(C   9,C  10,H  19)          125.73 -0.001527    0.21    125.93   
    60. A(C   7,C  11,C  10)          105.44 -0.006679    1.86    107.30   
    61. A(C  10,C  11,H  20)          131.64  0.006516   -1.80    129.85   
    62. A(C   7,C  11,H  20)          122.92  0.000163   -0.07    122.85   
    63. D(C   5,N   1,B   0,N   8)      0.50 -0.000973    0.66      1.16   
    64. D(C   2,N   1,B   0,F  12)     63.76  0.002166   -1.32     62.44   
    65. D(C   2,N   1,B   0,F  13)    -59.26 -0.001307    0.21    -59.05   
    66. D(C   5,N   1,B   0,F  12)   -116.09  0.001751   -1.04   -117.13   
    67. D(C   2,N   1,B   0,N   8)   -179.65 -0.000558    0.38   -179.27   
    68. D(H  14,C   2,N   1,B   0)      0.10 -0.000292    0.21      0.31   
    69. D(C   3,C   2,N   1,B   0)   -179.76 -0.000367    0.21   -179.55   
    70. D(H  14,C   2,N   1,C   5)    179.98  0.000065   -0.03    179.95   
    71. D(C   3,C   2,N   1,C   5)      0.11 -0.000009   -0.03      0.09   
    72. D(H  15,C   3,C   2,N   1)    179.92  0.000023    0.02    179.95   
    73. D(C   4,C   3,C   2,H  14)   -179.95 -0.000118    0.04   -179.91   
    74. D(H  15,C   3,C   2,H  14)      0.04 -0.000083    0.03      0.08   
    75. D(C   4,C   3,C   2,N   1)     -0.07 -0.000012    0.03     -0.04   
    76. D(C   5,C   4,C   3,H  15)   -179.99 -0.000000   -0.02   -180.01   
    77. D(C   5,C   4,C   3,C   2)      0.00  0.000034   -0.03     -0.02   
    78. D(H  16,C   4,C   3,H  15)      0.01 -0.000050    0.02      0.03   
    79. D(H  16,C   4,C   3,C   2)   -180.00 -0.000016    0.01   -179.99   
    80. D(C   6,C   5,C   4,H  16)      0.05 -0.000124    0.09      0.15   
    81. D(C   6,C   5,C   4,C   3)   -179.95 -0.000169    0.13   -179.82   
    82. D(N   1,C   5,C   4,H  16)   -179.94  0.000013   -0.02   -179.96   
    83. D(N   1,C   5,C   4,C   3)      0.06 -0.000032    0.01      0.07   
    84. D(C   6,C   5,N   1,B   0)     -0.22  0.000489   -0.33     -0.55   
    85. D(C   4,C   5,N   1,C   2)     -0.11  0.000027    0.01     -0.10   
    86. D(C   4,C   5,N   1,B   0)    179.77  0.000376   -0.23    179.54   
    87. D(C   6,C   5,N   1,C   2)    179.90  0.000140   -0.08    179.82   
    88. D(H  17,C   6,C   5,N   1)    179.98 -0.000087    0.04    180.03   
    89. D(C   7,C   6,C   5,C   4)    179.86  0.000371   -0.26    179.60   
    90. D(H  17,C   6,C   5,C   4)     -0.00  0.000059   -0.08     -0.08   
    91. D(C   7,C   6,C   5,N   1)     -0.15  0.000225   -0.14     -0.29   
    92. D(N   8,C   7,C   6,H  17)   -179.99  0.000023   -0.05   -180.04   
    93. D(N   8,C   7,C   6,C   5)      0.15 -0.000294    0.14      0.28   
    94. D(C  11,C   7,C   6,H  17)      0.01 -0.000072    0.05      0.06   
    95. D(C  11,C   7,C   6,C   5)   -179.85 -0.000388    0.23   -179.62   
    96. D(C   9,N   8,C   7,C  11)      0.15 -0.000080   -0.03      0.11   
    97. D(C   9,N   8,C   7,C   6)   -179.85 -0.000152    0.04   -179.81   
    98. D(B   0,N   8,C   7,C  11)   -179.77 -0.000272    0.25   -179.53   
    99. D(B   0,N   8,C   7,C   6)      0.23 -0.000344    0.32      0.55   
   100. D(C   9,N   8,B   0,F  12)    -62.65 -0.001271    0.97    -61.68   
   101. D(C   9,N   8,B   0,N   1)    179.60  0.000662   -0.32    179.28   
   102. D(C   7,N   8,B   0,F  13)   -122.31  0.000080    0.05   -122.26   
   103. D(C   7,N   8,B   0,F  12)    117.25 -0.001044    0.64    117.89   
   104. D(C   7,N   8,B   0,N   1)     -0.50  0.000889   -0.65     -1.15   
   105. D(H  18,C   9,N   8,C   7)   -180.00 -0.000002    0.06   -179.93   
   106. D(H  18,C   9,N   8,B   0)     -0.08  0.000197   -0.22     -0.30   
   107. D(C  10,C   9,N   8,C   7)     -0.14  0.000074    0.05     -0.09   
   108. D(C  10,C   9,N   8,B   0)    179.78  0.000274   -0.23    179.55   
   109. D(H  19,C  10,C   9,H  18)     -0.05  0.000067   -0.05     -0.10   
   110. D(H  19,C  10,C   9,N   8)   -179.91 -0.000032   -0.03   -179.95   
   111. D(C  11,C  10,C   9,H  18)    179.94  0.000081   -0.08    179.87   
   112. D(C  11,C  10,C   9,N   8)      0.08 -0.000018   -0.06      0.02   
   113. D(H  20,C  11,C  10,H  19)     -0.02  0.000043   -0.02     -0.04   
   114. D(H  20,C  11,C  10,C   9)    179.98  0.000029    0.01    180.00   
   115. D(C   7,C  11,C  10,H  19)   -179.99 -0.000015    0.01   -179.99   
   116. D(C   7,C  11,C  10,C   9)      0.01 -0.000029    0.04      0.05   
   117. D(H  20,C  11,C   7,N   8)    179.93  0.000016    0.02    179.95   
   118. D(H  20,C  11,C   7,C   6)     -0.07  0.000103   -0.08     -0.15   
   119. D(C  10,C  11,C   7,N   8)     -0.09  0.000071   -0.00     -0.09   
   120. D(C  10,C  11,C   7,C   6)    179.91  0.000158   -0.10    179.81   
    ----------------------------------------------------------------------------

Geometry step timings:
Preparation and reading OPT file:      0.000 s ( 7.511 %)
Internal coordinates            :      0.000 s ( 1.327 %)
B/P matrices and projection     :      0.001 s (24.762 %)
Hessian update/contruction      :      0.000 s (10.791 %)
Making the step                 :      0.001 s (17.877 %)
Converting the step to Cartesian:      0.000 s ( 2.479 %)
Storing new data                :      0.000 s ( 1.202 %)
Checking convergence            :      0.000 s ( 0.626 %)
Final printing                  :      0.001 s (33.375 %)
Total time                      :      0.004 s

Time for energy+gradient        :      0.025 s
Time for complete geometry iter :      0.031 s

         *************************************************************
         *                GEOMETRY OPTIMIZATION CYCLE   3            *
         *************************************************************
---------------------------------
CARTESIAN COORDINATES (ANGSTROEM)
---------------------------------
[...]
   116. D(C   7,C  11,C  10,C   9)      0.01 -0.000003    0.00      0.01   
   117. D(H  20,C  11,C   7,N   8)   -179.98  0.000003   -0.00   -179.98   
   118. D(H  20,C  11,C   7,C   6)     -0.15 -0.000003    0.02     -0.13   
   119. D(C  10,C  11,C   7,N   8)      0.00  0.000005   -0.00      0.00   
   120. D(C  10,C  11,C   7,C   6)    179.83 -0.000000    0.02    179.85   
    ----------------------------------------------------------------------------

Geometry step timings:
Preparation and reading OPT file:      0.001 s (14.444 %)
Internal coordinates            :      0.000 s ( 1.152 %)
B/P matrices and projection     :      0.001 s (21.101 %)
Hessian update/contruction      :      0.000 s ( 9.110 %)
Making the step                 :      0.001 s (14.764 %)
Converting the step to Cartesian:      0.000 s ( 1.942 %)
Storing new data                :      0.000 s ( 0.896 %)
Checking convergence            :      0.000 s ( 0.491 %)
Final printing                  :      0.002 s (36.079 %)
Total time                      :      0.005 s
                 *******************************************************
                 *** FINAL ENERGY EVALUATION AT THE STATIONARY POINT ***
                 ***               (AFTER    8 CYCLES)               ***
                 *******************************************************
---------------------------------
CARTESIAN COORDINATES (ANGSTROEM)
---------------------------------
  B     0.057366   -1.314154    0.751148
  N     1.263787   -0.522869    0.183362
  C     2.544177   -0.861055    0.256492
  C     3.338015    0.112212   -0.367667
  C     2.483370    1.082753   -0.837462
  C     1.171592    0.678916   -0.487835
  C    -0.054810    1.280666   -0.718040
  C    -1.230081    0.691887   -0.281153
  N    -1.219466   -0.509587    0.397034
  C    -2.472089   -0.833922    0.688318
  C    -3.350215    0.148547    0.208070
  C    -2.578168    1.110124   -0.401765
  F     0.174504   -1.426538    2.118014
  F     0.001006   -2.561289    0.172315
  H     2.846361   -1.769134    0.742186
  H     4.406264    0.086388   -0.452111
  H     2.733795    1.980098   -1.368374
  H    -0.095241    2.221321   -1.246344
  H    -2.697032   -1.739134    1.219139
  H    -4.417402    0.134109    0.307645
  H    -2.905735    2.010661   -0.882973

----------------------------
CARTESIAN COORDINATES (A.U.)
----------------------------
  NO LB    ZA    FRAG    MASS        X           Y           Z
   0 B   5.0000    0    10.810    0.108406   -2.483391    1.419464
   1 N   7.0000    0    14.007    2.388211   -0.988079    0.346504
   2 C   6.0000    0    12.011    4.807798   -1.627159    0.484700
   3 C   6.0000    0    12.011    6.307935    0.212049   -0.694790
   4 C   6.0000    0    12.011    4.692890    2.046107   -1.582574
   5 C   6.0000    0    12.011    2.213989    1.282966   -0.921875
   6 C   6.0000    0    12.011   -0.103575    2.420109   -1.356899
   7 C   6.0000    0    12.011   -2.324516    1.307478   -0.531302
   8 N   7.0000    0    14.007   -2.304458   -0.962980    0.750286
   9 C   6.0000    0    12.011   -4.671571   -1.575885    1.300732
  10 C   6.0000    0    12.011   -6.330990    0.280713    0.393196
  11 C   6.0000    0    12.011   -4.872031    2.097831   -0.759226
  12 F   9.0000    0    18.998    0.329764   -2.695766    4.002467
  13 F   9.0000    0    18.998    0.001900   -4.840136    0.325629
  14 H   1.0000    0     1.008    5.378843   -3.343179    1.402529
  15 H   1.0000    0     1.008    8.326632    0.163250   -0.854365
  16 H   1.0000    0     1.008    5.166124    3.741844   -2.585852
  17 H   1.0000    0     1.008   -0.179980    4.197688   -2.355248
  18 H   1.0000    0     1.008   -5.096651   -3.286487    2.303838
  19 H   1.0000    0     1.008   -8.347679    0.253430    0.581365
  20 H   1.0000    0     1.008   -5.491043    3.799599   -1.668577

      -----------------------------------------------------------      
     |                   =====================                   |     
     |                           x T B                           |     
     |                   =====================                   |     
     |                         S. Grimme                         |     
     |          Mulliken Center for Theoretical Chemistry        |     
     |                    University of Bonn                     |     
      -----------------------------------------------------------      

   * xtb version 6.7.1 (edcfbbe) compiled by 'albert@albert-system' on 2024-07-22

   xtb is free software: you can redistribute it and/or modify it under
   the terms of the GNU Lesser General Public License as published by
   the Free Software Foundation, either version 3 of the License, or
   (at your option) any later version.
   
   xtb is distributed in the hope that it will be useful,
   but WITHOUT ANY WARRANTY; without even the implied warranty of
   MERCHANTABILITY or FITNESS FOR A PARTICULAR PURPOSE.  See the
   GNU Lesser General Public License for more details.
   
   Cite this work as:
   * C. Bannwarth, E. Caldeweyher, S. Ehlert, A. Hansen, P. Pracht,
     J. Seibert, S. Spicher, S. Grimme, WIREs Comput. Mol. Sci., 2020, 11,
     e01493. DOI: 10.1002/wcms.1493
   
   for GFN2-xTB:
   * C. Bannwarth, S. Ehlert and S. Grimme., J. Chem. Theory Comput., 2019,
     15, 1652-1671. DOI: 10.1021/acs.jctc.8b01176
   for GFN1-xTB:
   * S. Grimme, C. Bannwarth, P. Shushkov, J. Chem. Theory Comput., 2017,
     13, 1989-2009. DOI: 10.1021/acs.jctc.7b00118
   for GFN0-xTB:
   * P. Pracht, E. Caldeweyher, S. Ehlert, S. Grimme, ChemRxiv, 2019, preprint.
     DOI: 10.26434/chemrxiv.8326202.v1
   for GFN-FF:
   * S. Spicher and S. Grimme, Angew. Chem. Int. Ed., 2020, 59, 15665-15673.
     DOI: 10.1002/anie.202004239
   
   for ALPB and GBSA implicit solvation:
   * S. Ehlert, M. Stahn, S. Spicher, S. Grimme, J. Chem. Theory Comput.,
     2021, 17, 4250-4261. DOI: 10.1021/acs.jctc.1c00471
   
   for ddCOSMO and CPCM-X implicit solvation:
   * M. Stahn, S. Ehlert, S. Grimme, J. Phys. Chem. A,
     2023, XX, XXXX-XXXX. DOI: 10.1021/acs.jpca.3c04382
   
   for DFT-D4:
   * E. Caldeweyher, C. Bannwarth and S. Grimme, J. Chem. Phys., 2017,
     147, 034112. DOI: 10.1063/1.4993215
   * E. Caldeweyher, S. Ehlert, A. Hansen, H. Neugebauer, S. Spicher,
     C. Bannwarth and S. Grimme, J. Chem. Phys., 2019, 150, 154122.
     DOI: 10.1063/1.5090222
   * E. Caldeweyher, J.-M. Mewes, S. Ehlert and S. Grimme, Phys. Chem. Chem. Phys.
     2020, 22, 8499-8512. DOI: 10.1039/D0CP00502A
   
   for sTDA-xTB:
   * S. Grimme and C. Bannwarth, J. Chem. Phys., 2016, 145, 054103.
     DOI: 10.1063/1.4959605
   
   in the mass-spec context:
   * V. Asgeirsson, C. Bauer and S. Grimme, Chem. Sci., 2017, 8, 4879.
     DOI: 10.1039/c7sc00601b
   * J. Koopman and S. Grimme, ACS Omega 2019, 4, 12, 15120-15133.
     DOI: 10.1021/acsomega.9b02011
   
   for metadynamics refer to:
   * S. Grimme, J. Chem. Theory Comput., 2019, 155, 2847-2862
     DOI: 10.1021/acs.jctc.9b00143
   
   for SPH calculations refer to:
   * S. Spicher and S. Grimme, J. Chem. Theory Comput., 2021, 17, 1701-1714
     DOI: 10.1021/acs.jctc.0c01306
   
   for ONIOM refer to:
   * C. Plett, A. Katbashev, S. Ehlert, S. Grimme, M. Bursch,
     Phys. Chem. Chem. Phys., 2023, 25, 17860-17868. DOI: 10.1039/D3CP02178E
   
   for DIPRO refer to:
   * J. Kohn, N. Gildemeister, S. Grimme, D. Fazzi, A. Hansen,
     J. Chem. Phys., 2023, just accepted.
   
   for PTB refer to:
   * S. Grimme, M. Mueller, A. Hansen, J. Chem. Phys., 2023, 158, 124111.
     DOI: 10.1063/5.0137838
   
   with help from (in alphabetical order)
   P. Atkinson, C. Bannwarth, F. Bohle, G. Brandenburg, E. Caldeweyher
   M. Checinski, S. Dohm, S. Ehlert, S. Ehrlich, I. Gerasimov, C. Hölzer
   A. Katbashev, J. Kohn, J. Koopman, C. Lavigne, S. Lehtola, F. März, M. Müller,
   F. Musil, H. Neugebauer, J. Pisarek, C. Plett, P. Pracht, F. Pultar,
   J. Seibert, P. Shushkov, S. Spicher, M. Stahn, M. Steiner, T. Strunk,
   J. Stückrath, T. Rose, and J. Unsleber
   
 * started run on 2025/05/03 at 16:14:38.695     
   ID    Z sym.   atoms
    1    5 B      1
    2    7 N      2, 9
    3    6 C      3-8, 10-12
    4    9 F      13, 14
    5    1 H      15-21

           -------------------------------------------------
          |                Calculation Setup                |
           -------------------------------------------------

          program call               : /home/marshall/orca_6_0_0/xtb Bod_xtb_opt_XTB.xyz --grad -c 0 -u 0 -P 5 --namespace Bod_xtb_opt --input Bod_xtb_opt_XTB.input.tmp --acc 0.200000
          calculation namespace      : Bod_xtb_opt
          coordinate file            : Bod_xtb_opt_XTB.xyz
          omp threads                :                     5


           -------------------------------------------------
          |                 G F N 2 - x T B                 |
           -------------------------------------------------

        Reference                      10.1021/acs.jctc.8b01176
      * Hamiltonian:
        H0-scaling (s, p, d)           1.850000    2.230000    2.230000
        zeta-weighting                 0.500000
      * Dispersion:
        s8                             2.700000
        a1                             0.520000
        a2                             5.000000
        s9                             5.000000
      * Repulsion:
        kExp                           1.500000    1.000000
        rExp                           1.000000
      * Coulomb:
        alpha                          2.000000
        third order                    shell-resolved
        anisotropic                    true
        a3                             3.000000
        a5                             4.000000
        cn-shift                       1.200000
        cn-exp                         4.000000
        max-rad                        5.000000

q/qsh data taken from xtbrestart
CAMM data taken from xtbrestart

          ...................................................
          :                      SETUP                      :
          :.................................................:
          :  # basis functions                  63          :
          :  # atomic orbitals                  63          :
          :  # shells                           35          :
          :  # electrons                        70          :
          :  max. iterations                   250          :
          :  Hamiltonian                  GFN2-xTB          :
          :  restarted?                       true          :
          :  GBSA solvation                  false          :
          :  PC potential                    false          :
          :  electronic temp.          300.0000000     K    :
          :  accuracy                    0.2000000          :
          :  -> integral cutoff          0.3198970E+02      :
          :  -> integral neglect         0.2000000E-08      :
          :  -> SCF convergence          0.2000000E-06 Eh   :
          :  -> wf. convergence          0.2000000E-04 e    :
          :  Broyden damping             0.4000000          :
          :  net charge                          0          :
          :  unpaired electrons                  0          :
          ...................................................

 iter      E             dE          RMSdq      gap      omega  full diag
   1    -40.0513603 -0.400514E+02  0.569E-03    1.79       0.0  T
   2    -40.0513603 -0.110141E-07  0.334E-03    1.79       6.5  T
   3    -40.0513603  0.417037E-07  0.131E-03    1.79      16.7  T
   4    -40.0513603 -0.435600E-07  0.453E-04    1.79      48.2  T
   5    -40.0513603 -0.368995E-08  0.195E-04    1.79     112.0  T
   6    -40.0513603 -0.440068E-09  0.672E-05    1.79     324.6  T

   *** convergence criteria satisfied after 6 iterations ***

         #    Occupation            Energy/Eh            Energy/eV
      -------------------------------------------------------------
         1        2.0000           -0.7666681             -20.8621
       ...           ...                  ...                  ...
        29        2.0000           -0.4548855             -12.3781
        30        2.0000           -0.4460194             -12.1368
        31        2.0000           -0.4437345             -12.0746
        32        2.0000           -0.4336656             -11.8006
        33        2.0000           -0.4263793             -11.6024
        34        2.0000           -0.4261589             -11.5964
        35        2.0000           -0.3983587             -10.8399 (HOMO)
        36                         -0.3325524              -9.0492 (LUMO)
        37                         -0.2168978              -5.9021
        38                         -0.1936935              -5.2707
        39                         -0.1792286              -4.8771
        40                         -0.1358386              -3.6964
       ...                                ...                  ...
        63                          0.6890323              18.7495
      -------------------------------------------------------------
                  HL-Gap            0.0658063 Eh            1.7907 eV
             Fermi-level           -0.3654555 Eh           -9.9446 eV

 SCC (total)                   0 d,  0 h,  0 min,  0.008 sec
 SCC setup                      ...        0 min,  0.000 sec (  2.314%)
 Dispersion                     ...        0 min,  0.000 sec (  1.505%)
 classical contributions        ...        0 min,  0.000 sec (  0.165%)
 integral evaluation            ...        0 min,  0.001 sec (  9.121%)
 iterations                     ...        0 min,  0.006 sec ( 66.878%)
 molecular gradient             ...        0 min,  0.002 sec ( 18.014%)
 printout                       ...        0 min,  0.000 sec (  1.827%)

         :::::::::::::::::::::::::::::::::::::::::::::::::::::
         ::                     SUMMARY                     ::
         :::::::::::::::::::::::::::::::::::::::::::::::::::::
         :: total energy             -39.530633975174 Eh    ::
         :: gradient norm              0.000440343505 Eh/a0 ::
         :: HOMO-LUMO gap              1.790680394979 eV    ::
         ::.................................................::
         :: SCC energy               -40.051321919240 Eh    ::
         :: -> isotropic ES            0.083940693459 Eh    ::
         :: -> anisotropic ES         -0.002748181017 Eh    ::
         :: -> anisotropic XC          0.011216828445 Eh    ::
         :: -> dispersion             -0.021117809197 Eh    ::
         :: repulsion energy           0.520687944066 Eh    ::
         :: add. restraining           0.000000000000 Eh    ::
         :: total charge               0.000000000000 e     ::
         :::::::::::::::::::::::::::::::::::::::::::::::::::::


Property printout bound to 'properties.out'

           -------------------------------------------------
          | TOTAL ENERGY              -39.530633975174 Eh   |
          | GRADIENT NORM               0.000440343505 Eh/α |
          | HOMO-LUMO GAP               1.790680394979 eV   |
           -------------------------------------------------

------------------------------------------------------------------------
 * finished run on 2025/05/03 at 16:14:38.712     
------------------------------------------------------------------------
 total:
 * wall-time:     0 d,  0 h,  0 min,  0.017 sec
 *  cpu-time:     0 d,  0 h,  0 min,  0.077 sec
 * ratio c/w:     4.553 speedup
 SCF:
 * wall-time:     0 d,  0 h,  0 min,  0.009 sec
 *  cpu-time:     0 d,  0 h,  0 min,  0.041 sec
 * ratio c/w:     4.753 speedup


-------------------------   --------------------
FINAL SINGLE POINT ENERGY       -39.530633975170
-------------------------   --------------------


-------------
DIPOLE MOMENT
-------------
                                X             Y             Z
Total Dipole Moment    :     -0.07700       1.71000      -0.98600
                        -----------------------------------------
Magnitude (a.u.)       :      1.97541
Magnitude (Debye)      :      5.02108

                                *** OPTIMIZATION RUN DONE ***


--------------------------------
SUGGESTED CITATIONS FOR THIS RUN
--------------------------------

Below you find a list of papers that are relevant to this ORCA run
We neither can nor want to force you to cite these papers, but we appreciate if you do
You receive ORCA, which is the product of decades of hard work by many enthusiastic individuals, for free
The only thing we kindly ask in return is that you cite our papers,
We deeply appreciate it, if you show your appreciation for ORCA by not just citing the generic ORCA reference.

Please note that relegating all ORCA citations to the supporting information does *not* help us.
SI sections are not indexed - citations you put there will not count into any citation statistics
But we need these citations in order to attract the funding resources that allow us to do what we are doing

Therefore, if you are a happy ORCA user, please consider citing a few of the papers listed below in the main body of your paper

In addition to the list printed below, the program has created the file Bod_xtb_opt.bibtex that contains the list in bibtex format
You can import this file easily into all common literature databanks and citation aid programs


List of essential papers. We consider these as the minimum necessary citations

  1. Bannwarth,C.; Ehlert,S.; Grimme,S.
     GFN2-xTB—An Accurate and Broadly Parametrized Self-Consistent Tight-Binding Quantum Chemical Method with Multipole Electrostatics and Density-Dependent Dispersion Contributions
     J. Chem. Theory Comput., 2019 15(3)1652-1671
     doi.org/10.1021/acs.jctc.8b01176
  2. Neese,F.
     Software update: the ORCA program system, version 5.0
     WIRES Comput. Molec. Sci., 2022 12(1)e1606
     doi.org/10.1002/wcms.1606

List of papers to cite with high priority. The work reported in these papers was absolutely
necessary for this run to complete.
Our perspective: the developers of density functionals and basis sets usually get cited in chemistry papers
Good! But without the algorithms to do something with them, the functionals or basis sets would not do anything.
Hence, in our opinion, the algorithm design and method developments papers are equally worthy of getting cited

  1. Bannwarth,C.; Caldeweyher,E.; Ehlert,S.; Hansen,A.; Pracht,P.; Seibert,J.; Spicher,S.; Grimme,S.
     Extended tight-binding quantum chemistry methods
     WIRES Comput. Molec. Sci., 2020 11(2)e1493
     doi.org/10.1002/wcms.1493

List of suggested additional citations. These are papers that are important in the 'surrounding' of 
of this run, or papers that preceded the highly important papers. If you like your results we are grateful for a citation.

  1. Neese,F.
     The ORCA program system
     WIRES Comput. Molec. Sci., 2012 2(1)73-78
     doi.org/10.1002/wcms.81
  2. Neese,F.
     Software update: the ORCA program system, version 4.0
     WIRES Comput. Molec. Sci., 2018 8(1)1-6
     doi.org/10.1002/wcms.1327
  3. Neese,F.; Wennmohs,F.; Becker,U.; Riplinger,C.
     The ORCA quantum chemistry program package
     J. Chem. Phys., 2020 152 Art. No. L224108
     doi.org/10.1063/5.0004608

List of optional additional citations

  1. Neese,F.
     Approximate second-order SCF convergence for spin unrestricted wavefunctions
     Chem. Phys. Lett., 2000 325(1-3)93-98
     doi.org/10.1016/s0009-2614(00)00662-x

Timings for individual modules:

Sum of individual times          ...        0.267 sec (=   0.004 min)
Geometry relaxation              ...        0.044 sec (=   0.001 min)  16.5 %
XTB module                       ...        0.223 sec (=   0.004 min)  83.5 %
                             ****ORCA TERMINATED NORMALLY****
TOTAL RUN TIME: 0 days 0 hours 0 minutes 0 seconds 665 msec
